LAMMPS Description

     64  atoms
     64  ellipsoids
     0  bonds
     0  angles
     0  dihedrals
     0  impropers

     1  atom types
     0  bond types
     0  angle types
     0  dihedral types
     0  improper types

  -12.800 12.800 xlo xhi
  -12.800 12.800 ylo yhi
  -12.800 12.800 zlo zhi

Atoms  # hybrid molecular ellipsoid

1 1 -12.8 -12.8 -12.8 1 1 1.09152285
2 1 -6.4 -12.8 -12.8 2 1 1.09152285
3 1 0.0 -12.8 -12.8 3 1 1.09152285
4 1 6.400000000000002 -12.8 -12.8 4 1 1.09152285
5 1 -12.8 -6.4 -12.8 5 1 1.09152285
6 1 -6.4 -6.4 -12.8 6 1 1.09152285
7 1 0.0 -6.4 -12.8 7 1 1.09152285
8 1 6.400000000000002 -6.4 -12.8 8 1 1.09152285
9 1 -12.8 0.0 -12.8 9 1 1.09152285
10 1 -6.4 0.0 -12.8 10 1 1.09152285
11 1 0.0 0.0 -12.8 11 1 1.09152285
12 1 6.400000000000002 0.0 -12.8 12 1 1.09152285
13 1 -12.8 6.400000000000002 -12.8 13 1 1.09152285
14 1 -6.4 6.400000000000002 -12.8 14 1 1.09152285
15 1 0.0 6.400000000000002 -12.8 15 1 1.09152285
16 1 6.400000000000002 6.400000000000002 -12.8 16 1 1.09152285
17 1 -12.8 -12.8 -6.4 17 1 1.09152285
18 1 -6.4 -12.8 -6.4 18 1 1.09152285
19 1 0.0 -12.8 -6.4 19 1 1.09152285
20 1 6.400000000000002 -12.8 -6.4 20 1 1.09152285
21 1 -12.8 -6.4 -6.4 21 1 1.09152285
22 1 -6.4 -6.4 -6.4 22 1 1.09152285
23 1 0.0 -6.4 -6.4 23 1 1.09152285
24 1 6.400000000000002 -6.4 -6.4 24 1 1.09152285
25 1 -12.8 0.0 -6.4 25 1 1.09152285
26 1 -6.4 0.0 -6.4 26 1 1.09152285
27 1 0.0 0.0 -6.4 27 1 1.09152285
28 1 6.400000000000002 0.0 -6.4 28 1 1.09152285
29 1 -12.8 6.400000000000002 -6.4 29 1 1.09152285
30 1 -6.4 6.400000000000002 -6.4 30 1 1.09152285
31 1 0.0 6.400000000000002 -6.4 31 1 1.09152285
32 1 6.400000000000002 6.400000000000002 -6.4 32 1 1.09152285
33 1 -12.8 -12.8 0.0 33 1 1.09152285
34 1 -6.4 -12.8 0.0 34 1 1.09152285
35 1 0.0 -12.8 0.0 35 1 1.09152285
36 1 6.400000000000002 -12.8 0.0 36 1 1.09152285
37 1 -12.8 -6.4 0.0 37 1 1.09152285
38 1 -6.4 -6.4 0.0 38 1 1.09152285
39 1 0.0 -6.4 0.0 39 1 1.09152285
40 1 6.400000000000002 -6.4 0.0 40 1 1.09152285
41 1 -12.8 0.0 0.0 41 1 1.09152285
42 1 -6.4 0.0 0.0 42 1 1.09152285
43 1 0.0 0.0 0.0 43 1 1.09152285
44 1 6.400000000000002 0.0 0.0 44 1 1.09152285
45 1 -12.8 6.400000000000002 0.0 45 1 1.09152285
46 1 -6.4 6.400000000000002 0.0 46 1 1.09152285
47 1 0.0 6.400000000000002 0.0 47 1 1.09152285
48 1 6.400000000000002 6.400000000000002 0.0 48 1 1.09152285
49 1 -12.8 -12.8 6.400000000000002 49 1 1.09152285
50 1 -6.4 -12.8 6.400000000000002 50 1 1.09152285
51 1 0.0 -12.8 6.400000000000002 51 1 1.09152285
52 1 6.400000000000002 -12.8 6.400000000000002 52 1 1.09152285
53 1 -12.8 -6.4 6.400000000000002 53 1 1.09152285
54 1 -6.4 -6.4 6.400000000000002 54 1 1.09152285
55 1 0.0 -6.4 6.400000000000002 55 1 1.09152285
56 1 6.400000000000002 -6.4 6.400000000000002 56 1 1.09152285
57 1 -12.8 0.0 6.400000000000002 57 1 1.09152285
58 1 -6.4 0.0 6.400000000000002 58 1 1.09152285
59 1 0.0 0.0 6.400000000000002 59 1 1.09152285
60 1 6.400000000000002 0.0 6.400000000000002 60 1 1.09152285
61 1 -12.8 6.400000000000002 6.400000000000002 61 1 1.09152285
62 1 -6.4 6.400000000000002 6.400000000000002 62 1 1.09152285
63 1 0.0 6.400000000000002 6.400000000000002 63 1 1.09152285
64 1 6.400000000000002 6.400000000000002 6.400000000000002 64 1 1.09152285

Ellipsoids

1 3.1589 3.1589 3.1589 1.0 0.0 0.0 0.0
2 3.1589 3.1589 3.1589 1.0 0.0 0.0 0.0
3 3.1589 3.1589 3.1589 1.0 0.0 0.0 0.0
4 3.1589 3.1589 3.1589 1.0 0.0 0.0 0.0
5 3.1589 3.1589 3.1589 1.0 0.0 0.0 0.0
6 3.1589 3.1589 3.1589 1.0 0.0 0.0 0.0
7 3.1589 3.1589 3.1589 1.0 0.0 0.0 0.0
8 3.1589 3.1589 3.1589 1.0 0.0 0.0 0.0
9 3.1589 3.1589 3.1589 1.0 0.0 0.0 0.0
10 3.1589 3.1589 3.1589 1.0 0.0 0.0 0.0
11 3.1589 3.1589 3.1589 1.0 0.0 0.0 0.0
12 3.1589 3.1589 3.1589 1.0 0.0 0.0 0.0
13 3.1589 3.1589 3.1589 1.0 0.0 0.0 0.0
14 3.1589 3.1589 3.1589 1.0 0.0 0.0 0.0
15 3.1589 3.1589 3.1589 1.0 0.0 0.0 0.0
16 3.1589 3.1589 3.1589 1.0 0.0 0.0 0.0
17 3.1589 3.1589 3.1589 1.0 0.0 0.0 0.0
18 3.1589 3.1589 3.1589 1.0 0.0 0.0 0.0
19 3.1589 3.1589 3.1589 1.0 0.0 0.0 0.0
20 3.1589 3.1589 3.1589 1.0 0.0 0.0 0.0
21 3.1589 3.1589 3.1589 1.0 0.0 0.0 0.0
22 3.1589 3.1589 3.1589 1.0 0.0 0.0 0.0
23 3.1589 3.1589 3.1589 1.0 0.0 0.0 0.0
24 3.1589 3.1589 3.1589 1.0 0.0 0.0 0.0
25 3.1589 3.1589 3.1589 1.0 0.0 0.0 0.0
26 3.1589 3.1589 3.1589 1.0 0.0 0.0 0.0
27 3.1589 3.1589 3.1589 1.0 0.0 0.0 0.0
28 3.1589 3.1589 3.1589 1.0 0.0 0.0 0.0
29 3.1589 3.1589 3.1589 1.0 0.0 0.0 0.0
30 3.1589 3.1589 3.1589 1.0 0.0 0.0 0.0
31 3.1589 3.1589 3.1589 1.0 0.0 0.0 0.0
32 3.1589 3.1589 3.1589 1.0 0.0 0.0 0.0
33 3.1589 3.1589 3.1589 1.0 0.0 0.0 0.0
34 3.1589 3.1589 3.1589 1.0 0.0 0.0 0.0
35 3.1589 3.1589 3.1589 1.0 0.0 0.0 0.0
36 3.1589 3.1589 3.1589 1.0 0.0 0.0 0.0
37 3.1589 3.1589 3.1589 1.0 0.0 0.0 0.0
38 3.1589 3.1589 3.1589 1.0 0.0 0.0 0.0
39 3.1589 3.1589 3.1589 1.0 0.0 0.0 0.0
40 3.1589 3.1589 3.1589 1.0 0.0 0.0 0.0
41 3.1589 3.1589 3.1589 1.0 0.0 0.0 0.0
42 3.1589 3.1589 3.1589 1.0 0.0 0.0 0.0
43 3.1589 3.1589 3.1589 1.0 0.0 0.0 0.0
44 3.1589 3.1589 3.1589 1.0 0.0 0.0 0.0
45 3.1589 3.1589 3.1589 1.0 0.0 0.0 0.0
46 3.1589 3.1589 3.1589 1.0 0.0 0.0 0.0
47 3.1589 3.1589 3.1589 1.0 0.0 0.0 0.0
48 3.1589 3.1589 3.1589 1.0 0.0 0.0 0.0
49 3.1589 3.1589 3.1589 1.0 0.0 0.0 0.0
50 3.1589 3.1589 3.1589 1.0 0.0 0.0 0.0
51 3.1589 3.1589 3.1589 1.0 0.0 0.0 0.0
52 3.1589 3.1589 3.1589 1.0 0.0 0.0 0.0
53 3.1589 3.1589 3.1589 1.0 0.0 0.0 0.0
54 3.1589 3.1589 3.1589 1.0 0.0 0.0 0.0
55 3.1589 3.1589 3.1589 1.0 0.0 0.0 0.0
56 3.1589 3.1589 3.1589 1.0 0.0 0.0 0.0
57 3.1589 3.1589 3.1589 1.0 0.0 0.0 0.0
58 3.1589 3.1589 3.1589 1.0 0.0 0.0 0.0
59 3.1589 3.1589 3.1589 1.0 0.0 0.0 0.0
60 3.1589 3.1589 3.1589 1.0 0.0 0.0 0.0
61 3.1589 3.1589 3.1589 1.0 0.0 0.0 0.0
62 3.1589 3.1589 3.1589 1.0 0.0 0.0 0.0
63 3.1589 3.1589 3.1589 1.0 0.0 0.0 0.0
64 3.1589 3.1589 3.1589 1.0 0.0 0.0 0.0

