ITEM: TIMESTEP
0
ITEM: NUMBER OF ATOMS
64
ITEM: BOX BOUNDS pp pp pp
-1.2800000000000001e+01 1.2800000000000001e+01
-1.2800000000000001e+01 1.2800000000000001e+01
-1.2800000000000001e+01 1.2800000000000001e+01
ITEM: ATOMS id type xu yu zu quatw quati quatj quatk c_diameter[1] c_diameter[2] c_diameter[3] vx vy vz angmomx angmomy angmomz mol
1 1 -12.8 -12.8 -12.8 1 0 0 0 3.1589 3.1589 3.1589 -0.00034498 -0.00180809 -0.00142335 0 0 0 1
2 1 -6.4 -12.8 -12.8 1 0 0 0 3.1589 3.1589 3.1589 -0.0041226 0.00726907 -0.00259631 0 0 0 2
5 1 -12.8 -6.4 -12.8 1 0 0 0 3.1589 3.1589 3.1589 -0.0012392 0.00324995 0.00224428 0 0 0 5
6 1 -6.4 -6.4 -12.8 1 0 0 0 3.1589 3.1589 3.1589 -0.00191024 0.00773899 0.00113087 0 0 0 6
17 1 -12.8 -12.8 -6.4 1 0 0 0 3.1589 3.1589 3.1589 0.00157598 0.00218666 -0.00172431 0 0 0 17
18 1 -6.4 -12.8 -6.4 1 0 0 0 3.1589 3.1589 3.1589 0.00686861 -0.00129304 0.00248752 0 0 0 18
21 1 -12.8 -6.4 -6.4 1 0 0 0 3.1589 3.1589 3.1589 0.00118419 -0.000290268 -0.0009063 0 0 0 21
22 1 -6.4 -6.4 -6.4 1 0 0 0 3.1589 3.1589 3.1589 0.00205463 -0.00116075 0.00111788 0 0 0 22
3 1 0 -12.8 -12.8 1 0 0 0 3.1589 3.1589 3.1589 0.00273089 0.00358858 -0.0022503 0 0 0 3
7 1 0 -6.4 -12.8 1 0 0 0 3.1589 3.1589 3.1589 -0.0050658 -0.00225857 -0.00460439 0 0 0 7
19 1 0 -12.8 -6.4 1 0 0 0 3.1589 3.1589 3.1589 0.00137109 -0.000124466 -0.00229262 0 0 0 19
23 1 0 -6.4 -6.4 1 0 0 0 3.1589 3.1589 3.1589 -0.00206436 -0.000710758 0.00204941 0 0 0 23
4 1 6.4 -12.8 -12.8 1 0 0 0 3.1589 3.1589 3.1589 0.00221437 0.00297857 0.000741922 0 0 0 4
8 1 6.4 -6.4 -12.8 1 0 0 0 3.1589 3.1589 3.1589 0.00552197 -0.0015771 -0.000734737 0 0 0 8
20 1 6.4 -12.8 -6.4 1 0 0 0 3.1589 3.1589 3.1589 0.00174574 -0.00440724 0.00109388 0 0 0 20
24 1 6.4 -6.4 -6.4 1 0 0 0 3.1589 3.1589 3.1589 -0.0054354 0.00179941 -0.00423401 0 0 0 24
33 1 -12.8 -12.8 0 1 0 0 0 3.1589 3.1589 3.1589 -0.00351041 -0.00157332 0.00160196 0 0 0 33
34 1 -6.4 -12.8 0 1 0 0 0 3.1589 3.1589 3.1589 0.00519461 -0.00529939 0.00785777 0 0 0 34
37 1 -12.8 -6.4 0 1 0 0 0 3.1589 3.1589 3.1589 0.000813485 0.00524863 0.00157053 0 0 0 37
38 1 -6.4 -6.4 0 1 0 0 0 3.1589 3.1589 3.1589 -0.00644775 -0.00357638 0.00897228 0 0 0 38
49 1 -12.8 -12.8 6.4 1 0 0 0 3.1589 3.1589 3.1589 -0.00552753 0.00214298 0.000397966 0 0 0 49
50 1 -6.4 -12.8 6.4 1 0 0 0 3.1589 3.1589 3.1589 -0.00153722 -0.00114343 -0.00563339 0 0 0 50
53 1 -12.8 -6.4 6.4 1 0 0 0 3.1589 3.1589 3.1589 0.00639512 0.00324149 -0.00575774 0 0 0 53
54 1 -6.4 -6.4 6.4 1 0 0 0 3.1589 3.1589 3.1589 -0.000337336 0.00464887 -0.00475431 0 0 0 54
35 1 0 -12.8 0 1 0 0 0 3.1589 3.1589 3.1589 -0.00284424 0.00245606 -0.00613578 0 0 0 35
39 1 0 -6.4 0 1 0 0 0 3.1589 3.1589 3.1589 0.00566487 -0.00274397 0.00202772 0 0 0 39
51 1 0 -12.8 6.4 1 0 0 0 3.1589 3.1589 3.1589 0.00416921 0.00583963 -0.00176736 0 0 0 51
55 1 0 -6.4 6.4 1 0 0 0 3.1589 3.1589 3.1589 -0.00358816 -0.00351731 0.00154716 0 0 0 55
36 1 6.4 -12.8 0 1 0 0 0 3.1589 3.1589 3.1589 -0.005094 0.00162365 0.00133349 0 0 0 36
40 1 6.4 -6.4 0 1 0 0 0 3.1589 3.1589 3.1589 -0.00285882 0.00330637 -8.05844e-05 0 0 0 40
52 1 6.4 -12.8 6.4 1 0 0 0 3.1589 3.1589 3.1589 -0.00395163 -0.00185274 0.00804564 0 0 0 52
56 1 6.4 -6.4 6.4 1 0 0 0 3.1589 3.1589 3.1589 0.000220851 0.00149701 0.00158625 0 0 0 56
9 1 -12.8 0 -12.8 1 0 0 0 3.1589 3.1589 3.1589 -0.00193449 0.000193993 -0.001071 0 0 0 9
10 1 -6.4 0 -12.8 1 0 0 0 3.1589 3.1589 3.1589 0.00194462 -0.00341063 -0.00624123 0 0 0 10
13 1 -12.8 6.4 -12.8 1 0 0 0 3.1589 3.1589 3.1589 -0.00132333 -0.00182116 0.00134213 0 0 0 13
14 1 -6.4 6.4 -12.8 1 0 0 0 3.1589 3.1589 3.1589 -0.00679133 0.00198153 -0.00714078 0 0 0 14
25 1 -12.8 0 -6.4 1 0 0 0 3.1589 3.1589 3.1589 -0.00602961 -0.0026156 0.00220238 0 0 0 25
26 1 -6.4 0 -6.4 1 0 0 0 3.1589 3.1589 3.1589 -0.00243283 -0.00342201 0.00238305 0 0 0 26
29 1 -12.8 6.4 -6.4 1 0 0 0 3.1589 3.1589 3.1589 0.00178693 -0.00281471 -0.00215373 0 0 0 29
30 1 -6.4 6.4 -6.4 1 0 0 0 3.1589 3.1589 3.1589 -0.0053098 0.00619859 -0.0016688 0 0 0 30
11 1 0 0 -12.8 1 0 0 0 3.1589 3.1589 3.1589 0.000380121 -0.0108723 -0.000289134 0 0 0 11
15 1 0 6.4 -12.8 1 0 0 0 3.1589 3.1589 3.1589 -0.00208169 0.0023075 -0.00301065 0 0 0 15
27 1 0 0 -6.4 1 0 0 0 3.1589 3.1589 3.1589 0.00365321 -0.00397369 0.00349591 0 0 0 27
31 1 0 6.4 -6.4 1 0 0 0 3.1589 3.1589 3.1589 0.0049321 -0.00482661 0.00488023 0 0 0 31
12 1 6.4 0 -12.8 1 0 0 0 3.1589 3.1589 3.1589 -0.000823794 -0.00469923 -0.00316584 0 0 0 12
16 1 6.4 6.4 -12.8 1 0 0 0 3.1589 3.1589 3.1589 0.00307337 -0.00213537 0.00241841 0 0 0 16
28 1 6.4 0 -6.4 1 0 0 0 3.1589 3.1589 3.1589 0.00329065 0.00027837 -0.00368678 0 0 0 28
32 1 6.4 6.4 -6.4 1 0 0 0 3.1589 3.1589 3.1589 -0.00168508 -0.00177191 -0.00439837 0 0 0 32
41 1 -12.8 0 0 1 0 0 0 3.1589 3.1589 3.1589 0.0045422 0.00397079 0.0092409 0 0 0 41
42 1 -6.4 0 0 1 0 0 0 3.1589 3.1589 3.1589 0.00253583 0.00239232 0.00403518 0 0 0 42
45 1 -12.8 6.4 0 1 0 0 0 3.1589 3.1589 3.1589 0.00427095 0.001668 -0.00712689 0 0 0 45
46 1 -6.4 6.4 0 1 0 0 0 3.1589 3.1589 3.1589 0.00693027 -0.0040549 0.000957002 0 0 0 46
57 1 -12.8 0 6.4 1 0 0 0 3.1589 3.1589 3.1589 -0.00366991 0.00187833 -0.000196218 0 0 0 57
58 1 -6.4 0 6.4 1 0 0 0 3.1589 3.1589 3.1589 -0.00512252 0.00425334 0.00385286 0 0 0 58
61 1 -12.8 6.4 6.4 1 0 0 0 3.1589 3.1589 3.1589 -0.000183654 -0.00688186 0.00265123 0 0 0 61
62 1 -6.4 6.4 6.4 1 0 0 0 3.1589 3.1589 3.1589 -0.0010528 0.00154531 -0.00150368 0 0 0 62
43 1 0 0 0 1 0 0 0 3.1589 3.1589 3.1589 -0.00123632 0.00146745 0.0027601 0 0 0 43
47 1 0 6.4 0 1 0 0 0 3.1589 3.1589 3.1589 0.00449802 -0.000862568 0.000528703 0 0 0 47
59 1 0 0 6.4 1 0 0 0 3.1589 3.1589 3.1589 0.00701459 0.00158215 -0.00385778 0 0 0 59
63 1 0 6.4 6.4 1 0 0 0 3.1589 3.1589 3.1589 0.00486691 -0.000704451 0.00689605 0 0 0 63
44 1 6.4 0 0 1 0 0 0 3.1589 3.1589 3.1589 0.00397286 0.00118469 -0.000207283 0 0 0 44
48 1 6.4 6.4 0 1 0 0 0 3.1589 3.1589 3.1589 -0.00487867 -0.00177556 -0.000799263 0 0 0 48
60 1 6.4 0 6.4 1 0 0 0 3.1589 3.1589 3.1589 -0.00274352 0.000795971 -0.00143322 0 0 0 60
64 1 6.4 6.4 6.4 1 0 0 0 3.1589 3.1589 3.1589 -0.00223921 -0.000534849 -0.000604501 0 0 0 64
ITEM: TIMESTEP
5000
ITEM: NUMBER OF ATOMS
64
ITEM: BOX BOUNDS pp pp pp
-6.0792158102501936e+00 6.0792158102501936e+00
-6.0792158102501936e+00 6.0792158102501936e+00
-6.0792158102501936e+00 6.0792158102501936e+00
ITEM: ATOMS id type xu yu zu quatw quati quatj quatk c_diameter[1] c_diameter[2] c_diameter[3] vx vy vz angmomx angmomy angmomz mol
22 1 -1.03501 -2.3153 -3.21076 -0.633641 0.307726 0.400773 -0.58582 3.1589 3.1589 3.1589 0.00031186 0.00656423 -0.000943239 -0.0102629 -0.0693022 0.0198219 22
32 1 5.78505 -3.18248 -2.32897 -0.405956 0.700033 -0.583245 0.0705647 3.1589 3.1589 3.1589 0.00223132 0.00258042 -0.00217055 -0.152384 0.0646359 -0.0098487 32
52 1 10.5034 -4.51575 7.4515 0.716494 -0.649944 0.116438 0.225056 3.1589 3.1589 3.1589 0.00281832 0.00155818 0.000988596 0.0254688 0.00958947 0.0723434 52
34 1 7.80984 -4.88824 7.28063 0.661933 -0.109703 -0.564886 0.480326 3.1589 3.1589 3.1589 0.000444678 0.00570102 -0.00493302 -0.0840246 0.00956685 0.00567076 34
13 1 -5.85159 9.57334 -5.40112 0.0713532 0.258428 -0.723066 0.636631 3.1589 3.1589 3.1589 -1.43043e-05 2.49724e-05 -0.00125822 -0.0380106 0.00156694 0.0300858 13
21 1 -10.366 10.2622 -4.75935 -0.396731 -0.704911 -0.310494 -0.499298 3.1589 3.1589 3.1589 -0.00204202 -0.00254403 0.00214585 0.0235825 -0.130254 0.0226766 21
57 1 -3.99816 7.91812 10.9976 0.576819 -0.181192 0.144972 0.783219 3.1589 3.1589 3.1589 0.00373264 -0.000522682 -0.00264011 0.0199618 0.0248359 -0.0999248 57
58 1 -5.50427 11.9365 -3.9 -0.0927947 -0.71371 -0.179791 -0.670584 3.1589 3.1589 3.1589 0.00106066 0.00266966 -0.00140705 0.0625621 -0.0317396 0.12908 58
62 1 -10.2033 7.57104 -4.4961 0.692322 0.578621 0.404777 -0.14847 3.1589 3.1589 3.1589 -0.00097953 -0.00255892 -0.00212335 -0.0180186 0.131284 0.0177836 62
61 1 -7.19649 6.74154 8.34275 0.174101 -0.313508 -0.190844 -0.913773 3.1589 3.1589 3.1589 -0.0044248 -0.000912319 -0.00601629 -0.0141366 -0.105711 0.0187842 61
38 1 -8.65131 -1.65412 -2.14768 -0.0544563 -0.46228 0.704385 0.535885 3.1589 3.1589 3.1589 0.00162275 -0.000862266 -0.00210635 0.0980767 -0.0949484 0.0243106 38
19 1 -1.20277 0.256321 -4.1413 0.246489 -0.104218 -0.88212 0.387615 3.1589 3.1589 3.1589 0.00213568 0.00323728 -0.00216726 0.00903597 -0.094483 0.166766 19
55 1 -2.05604 -1.0273 -0.889976 -0.0859612 0.88914 -0.0718453 -0.44371 3.1589 3.1589 3.1589 0.00743847 -0.00386614 -0.00199277 0.0902554 -0.0287436 -0.00015884 55
31 1 1.09867 9.32033 -1.59565 0.111457 0.831582 -0.463016 0.28577 3.1589 3.1589 3.1589 0.00470399 -0.00626234 -0.000285603 -0.152239 0.00882479 0.0240405 31
16 1 6.49427 11.8582 -12.7949 0.928002 -0.37216 0.0159389 -0.00739082 3.1589 3.1589 3.1589 -0.000280399 0.00197185 0.00637918 0.0422166 0.0719423 0.073836 16
25 1 -0.588465 -4.0519 -7.08669 0.155365 -0.261529 0.803343 -0.511962 3.1589 3.1589 3.1589 -0.000745308 0.00106038 0.00612485 0.0472018 -0.0263878 0.115923 25
5 1 -8.4778 9.04235 -6.41047 0.560778 -0.0410544 -0.802229 0.200678 3.1589 3.1589 3.1589 -0.00130954 -0.000200532 0.00192642 -0.0645471 0.0978556 -0.0567124 5
23 1 -7.64304 -2.07137 -8.74459 0.886428 -0.0104185 0.305949 -0.347177 3.1589 3.1589 3.1589 -0.000883077 0.000336093 -0.000654661 0.0927753 0.00507696 0.0575318 23
41 1 -7.13927 8.06246 0.197027 -0.849981 0.324543 -0.390353 -0.140815 3.1589 3.1589 3.1589 -0.00539825 -0.000768382 0.00656712 0.016987 -0.0355083 -0.0711982 41
46 1 -4.43987 -2.02581 4.41822 0.437883 -0.073784 0.825343 -0.348745 3.1589 3.1589 3.1589 0.00853582 0.00020177 -0.00438358 -0.0433656 -0.0546195 -0.0762028 46
33 1 -10.5688 6.75762 0.137707 0.30589 0.159914 0.461468 -0.817255 3.1589 3.1589 3.1589 -0.00411162 -0.00364014 -0.0065636 0.057367 0.156926 -0.0343561 33
40 1 11.8439 7.83388 1.95172 0.0050426 0.928371 0.276677 -0.248096 3.1589 3.1589 3.1589 -0.00256014 0.00365841 0.000554839 0.0454721 0.0100552 0.0835334 40
56 1 8.90229 7.6632 3.90535 -0.801035 0.0221681 -0.0746055 -0.593537 3.1589 3.1589 3.1589 0.00638664 6.24446e-05 -0.00127433 -0.0456832 0.138006 0.00264515 56
2 1 0.704173 -2.31802 -8.73093 -0.330773 0.466731 -0.588325 0.571511 3.1589 3.1589 3.1589 0.00575467 -0.00452257 0.00328298 -0.00330469 0.115066 -0.086572 2
48 1 2.79634 9.30311 1.09483 -0.481747 -0.287606 -0.820298 -0.110965 3.1589 3.1589 3.1589 -0.000360296 0.00566219 -0.00265968 0.0457857 -0.080767 -0.0650326 48
53 1 -5.17355 9.78905 1.85567 0.0232434 -0.402654 -0.769496 0.495182 3.1589 3.1589 3.1589 0.00466815 0.00204533 -0.000479253 -0.0554967 0.0529135 0.0358906 53
18 1 2.10641 -4.95362 -7.63071 0.810974 0.531379 0.0877615 0.228597 3.1589 3.1589 3.1589 0.000995986 0.00390059 0.000680592 -0.0385448 0.00919783 -0.0496113 18
42 1 -5.64271 6.45674 2.16347 -0.00164172 0.401751 -0.896106 0.188647 3.1589 3.1589 3.1589 -0.000253358 -0.00165483 -0.00148287 0.00496591 0.0531315 -0.0396329 42
8 1 9.37262 -3.1995 1.25962 -0.256015 -0.316854 -0.436209 0.80236 3.1589 3.1589 3.1589 -0.00417545 0.00184068 -0.00172926 0.116949 -0.0110086 0.0632277 8
4 1 4.39147 5.96891 -6.6076 -0.35221 0.277527 -0.816351 -0.364003 3.1589 3.1589 3.1589 0.0031959 0.00215559 0.00189198 -0.078792 0.0965058 0.111567 4
60 1 3.35048 11.841 0.0634916 0.0770256 0.195871 -0.977592 0.00404237 3.1589 3.1589 3.1589 -5.06577e-05 -0.000103991 0.00288202 -0.0820721 0.0718127 -0.0284953 60
9 1 0.282832 -1.2165 0.557266 0.250573 -0.163472 -0.423464 0.855084 3.1589 3.1589 3.1589 -0.00165144 0.00181499 -0.0047552 0.0867363 -0.0640771 0.0664331 9
7 1 3.99015 3.50353 -5.36581 0.207957 -0.498945 -0.779775 0.315844 3.1589 3.1589 3.1589 -0.00179383 -0.000297259 0.00033297 0.0653684 -0.0729442 0.107559 7
12 1 5.20093 3.56121 -2.92761 -0.204882 0.0126286 -0.691956 0.692142 3.1589 3.1589 3.1589 -0.000644873 -0.000625951 -0.000831294 -0.0541559 0.127609 0.101882 12
51 1 -0.369016 2.52703 6.21586 -0.435665 0.656097 -0.540949 0.29514 3.1589 3.1589 3.1589 -0.00122067 -0.000546558 0.0019278 0.006597 -0.0088081 -0.0192152 51
45 1 -10.628 17.9249 -2.34172 0.188898 0.33346 0.237333 -0.892634 3.1589 3.1589 3.1589 -0.00284849 0.00208167 -0.00173168 -0.0401063 0.0472584 -0.135016 45
44 1 4.61354 14.2444 -0.292992 -0.41805 -0.296066 -0.809093 0.288005 3.1589 3.1589 3.1589 0.00230123 -0.00338772 0.00228518 -0.127253 -0.06726 0.032857 44
36 1 -3.45664 1.20325 -1.66695 0.173835 0.650984 0.730238 0.112935 3.1589 3.1589 3.1589 -0.00110277 -0.00149139 -0.00437625 -0.0747461 0.0215385 0.0668878 36
24 1 -10.7213 0.995446 -3.60815 0.912389 0.00453664 0.102249 0.396321 3.1589 3.1589 3.1589 -0.0025389 0.000760143 -0.0037504 0.0105435 0.0582616 -0.0243313 24
20 1 -1.78545 3.54922 -1.58102 0.060744 0.288509 0.934035 -0.20162 3.1589 3.1589 3.1589 -0.00772668 -0.00565895 -0.000414528 -0.0763266 -0.0424185 0.0370017 20
27 1 -4.54162 3.97892 -4.10961 -0.735386 -0.0931572 -0.0559851 0.668876 3.1589 3.1589 3.1589 0.00016285 -0.00250148 0.00416071 0.036436 0.0599614 -0.0428922 27
17 1 -10.7171 3.49782 -4.16974 -0.15613 0.0221091 -0.618613 0.769709 3.1589 3.1589 3.1589 -0.00408125 -0.00446822 -0.000871959 -0.0195923 -0.049926 0.0205951 17
49 1 -16.9486 5.48634 11.7898 -0.204137 -0.496602 -0.447441 -0.7152 3.1589 3.1589 3.1589 -0.00414615 -0.00486237 0.0014802 -0.0839272 -0.120479 -0.0833762 49
29 1 -7.97636 5.70149 -1.16695 0.710184 0.195654 0.201828 -0.645464 3.1589 3.1589 3.1589 0.00261859 0.00149431 -0.000904531 0.0528283 -0.00318358 0.0682197 29
30 1 -3.56884 13.7571 -5.15352 0.065082 0.529369 -0.266282 0.802887 3.1589 3.1589 3.1589 0.000179472 -0.00113909 0.000463557 -0.0726568 -0.0128899 0.118055 30
39 1 -2.63747 5.85941 9.34706 -0.910296 -0.0504398 -0.395793 0.110293 3.1589 3.1589 3.1589 -0.00233795 -0.00403591 -0.00104919 -0.0139034 0.147902 -0.0620172 39
43 1 3.79858 0.366656 -5.05039 0.149934 0.0426626 0.503703 0.849696 3.1589 3.1589 3.1589 -0.000100298 0.00225897 -0.00200707 -0.0780902 0.00801236 -0.066305 43
14 1 -4.38645 15.2003 -8.02569 -0.274486 -0.546954 0.70604 -0.35638 3.1589 3.1589 3.1589 0.00405426 -0.000836504 0.0101651 0.0238988 -0.107113 -0.0248113 14
64 1 2.12237 15.8689 1.08864 0.628306 -0.350615 0.120546 -0.683937 3.1589 3.1589 3.1589 -0.00441783 -0.00305692 -0.00194733 0.0622184 -0.207685 0.0759607 64
63 1 -2.15462 16.7505 5.33499 0.107855 -0.387686 0.696496 -0.594105 3.1589 3.1589 3.1589 0.00327978 -0.00709323 0.000645862 -0.130622 0.0654416 -0.0332319 63
54 1 -14.221 3.06822 1.34848 0.102998 0.592868 0.539223 -0.589183 3.1589 3.1589 3.1589 0.00577703 0.000908694 0.000341721 -0.0906545 -0.178908 -0.0642212 54
6 1 -4.92581 2.38597 -11.3148 0.481464 0.199701 0.264488 -0.811393 3.1589 3.1589 3.1589 -0.00575963 0.000852041 0.00640509 0.00567533 0.085755 -0.125951 6
1 1 -5.21111 -6.31026 -7.12057 0.301679 0.0387022 0.102046 0.947142 3.1589 3.1589 3.1589 0.000942015 0.00215459 -0.000645059 0.0375582 -0.13775 0.0559577 1
11 1 -7.89958 3.14902 -8.42545 -0.816944 0.215631 -0.473124 -0.249519 3.1589 3.1589 3.1589 -0.000732393 0.00368025 0.000464332 -0.0796283 0.00751569 0.02832 11
47 1 1.57998 15.9959 4.20913 0.846028 -0.080523 0.526836 -0.014038 3.1589 3.1589 3.1589 0.00547153 0.000314186 0.00508692 -0.0888951 -0.101072 0.0884399 47
28 1 1.44386 0.93062 3.65716 -0.866732 -0.116843 0.0540111 0.481877 3.1589 3.1589 3.1589 0.00308656 -0.00197867 0.000841383 -0.0226852 0.00844796 -0.0843872 28
37 1 -14.0012 5.47298 2.68695 0.580241 -0.0112302 -0.241809 0.777639 3.1589 3.1589 3.1589 0.00278387 0.00221543 0.00411123 -0.0266828 0.0481424 -0.00738601 37
50 1 -2.27002 0.287665 4.51367 0.613952 -0.524402 -0.275733 -0.521571 3.1589 3.1589 3.1589 0.00294505 0.00484186 0.00209185 0.0163866 -0.0117925 -0.0171341 50
15 1 -8.85014 5.92222 -9.62066 -0.663912 -0.332032 0.291808 -0.603179 3.1589 3.1589 3.1589 -0.00439989 0.0022857 -0.000217147 0.0760001 -0.00997727 -0.00659336 15
35 1 -8.29671 0.26456 -7.70203 0.566735 0.0171515 -0.659534 -0.49349 3.1589 3.1589 3.1589 0.00290759 -0.00140412 -0.000199893 0.0426624 -0.0719323 0.0482421 35
3 1 -0.664045 0.980524 2.17521 -0.183452 0.848008 0.383085 0.316976 3.1589 3.1589 3.1589 -0.00519276 -0.00477782 0.000353856 -0.0161856 -0.00776924 -0.0989877 3
26 1 -11.5452 5.58779 -5.9605 0.0232527 -0.22495 0.808443 0.543393 3.1589 3.1589 3.1589 -0.00340285 0.00276519 0.00398804 0.035265 0.112226 0.0301859 26
59 1 0.0535845 11.9073 5.58484 0.523928 -0.463626 -0.175437 -0.692656 3.1589 3.1589 3.1589 -0.00160758 -0.00755951 -0.00229706 -0.101683 -0.0156794 0.0799781 59
10 1 -6.18619 1.94558 -6.10575 0.383382 0.90906 0.118742 0.111933 3.1589 3.1589 3.1589 0.00226727 -0.00428651 0.000419256 0.0913215 0.0572837 0.00628651 10
ITEM: TIMESTEP
10000
ITEM: NUMBER OF ATOMS
64
ITEM: BOX BOUNDS pp pp pp
-6.1643340697787661e+00 6.1643340697787661e+00
-6.1643340697787661e+00 6.1643340697787661e+00
-6.1643340697787661e+00 6.1643340697787661e+00
ITEM: ATOMS id type xu yu zu quatw quati quatj quatk c_diameter[1] c_diameter[2] c_diameter[3] vx vy vz angmomx angmomy angmomz mol
56 1 5.12997 8.2295 7.35386 0.498281 0.127249 -0.588126 0.624204 3.1589 3.1589 3.1589 0.00193695 -0.0052219 -0.00445719 0.095332 -0.00691594 -0.0791472 56
27 1 -3.52307 8.50179 -2.84628 0.171482 0.070118 0.292285 -0.938215 3.1589 3.1589 3.1589 -0.00116052 0.0050389 0.00329534 -0.063059 -0.0153596 -0.0835185 27
32 1 12.4066 -1.2185 -2.07868 -0.745172 -0.460783 0.38271 0.29314 3.1589 3.1589 3.1589 0.00297589 -0.00119661 -0.00495743 0.0455173 0.0384275 0.138361 32
12 1 2.20114 6.49385 -4.09707 0.0716584 -0.235121 0.123011 -0.961484 3.1589 3.1589 3.1589 0.00328802 -0.00224899 0.000600362 -0.0130805 -0.00542279 0.0251117 12
5 1 -12.9918 9.56828 -5.0651 0.338672 -0.138502 -0.930078 -0.0327698 3.1589 3.1589 3.1589 0.00208351 0.00254035 -0.0055567 -0.05336 0.100482 -0.033109 5
37 1 -8.83524 7.54762 -1.82343 -0.537037 0.222758 -0.649044 0.490624 3.1589 3.1589 3.1589 0.00494178 -0.000940768 -0.00261826 -0.00135691 0.132823 0.0794938 37
23 1 -5.2154 -2.16442 -1.36803 0.436311 -0.867967 0.237128 -0.0061307 3.1589 3.1589 3.1589 -0.00824911 0.00164088 -0.0042779 -0.0397482 -0.0884755 -0.156735 23
52 1 15.0116 -2.58909 8.06783 -0.201081 -0.61948 0.461701 -0.602199 3.1589 3.1589 3.1589 -0.000988484 -0.00481004 -0.0020334 -0.061092 0.0590689 0.113343 52
34 1 11.8535 -4.73469 9.1268 -0.862877 0.165933 0.348682 0.326084 3.1589 3.1589 3.1589 -0.00194527 0.00149539 0.00189282 -0.0613223 0.00737689 -0.0763932 34
19 1 4.38155 -2.23044 -2.06517 0.764952 0.09505 -0.55703 0.309082 3.1589 3.1589 3.1589 0.00333937 -0.00720651 -0.00644226 0.0611854 0.116769 0.0101957 19
61 1 -5.37191 6.60259 8.47348 0.621017 -0.049244 0.655724 0.426543 3.1589 3.1589 3.1589 0.00304041 0.00114332 0.00295996 -0.054267 -0.0141657 0.0305384 61
31 1 10.0696 10.9971 -3.46003 0.0542764 0.2295 -0.318074 -0.918266 3.1589 3.1589 3.1589 -0.00568764 0.00380748 -0.00305203 -0.00987163 0.0828432 0.0856414 31
49 1 -18.1136 6.20763 10.9791 0.562458 0.75555 -0.114001 -0.315896 3.1589 3.1589 3.1589 -0.00192776 0.00541499 0.00308855 -0.0536009 -0.0456388 0.0937119 49
10 1 -3.26204 8.3398 -5.97835 -0.141363 -0.819917 -0.542611 -0.115437 3.1589 3.1589 3.1589 0.00621452 -0.00336008 0.00312764 -0.201395 0.0262555 0.000638702 10
13 1 -5.30606 10.8946 -6.11625 -0.249706 -0.57454 -0.516131 -0.584089 3.1589 3.1589 3.1589 -0.00467452 -0.00261392 -0.000998008 -0.073817 -0.07035 -0.0187362 13
33 1 -14.1809 18.5279 2.42566 0.473381 0.141905 -0.803694 0.331436 3.1589 3.1589 3.1589 0.00123773 -0.000264161 -0.00199411 -0.146575 0.0159886 -0.092205 33
2 1 5.5857 -1.74524 -8.83953 -0.603403 -0.586622 0.0174394 0.539885 3.1589 3.1589 3.1589 0.00167554 0.002236 0.000777745 -0.102718 -0.0130615 -0.0991873 2
41 1 -10.9498 9.5066 5.3708 -0.309691 0.183185 -0.453571 0.815358 3.1589 3.1589 3.1589 -0.00100656 -0.00277858 0.00870448 0.00927348 -0.0055223 0.0419576 41
55 1 0.69207 -2.57147 0.241473 -0.0252493 0.472393 0.667816 0.574656 3.1589 3.1589 3.1589 -0.00056514 0.000730606 0.000536402 0.025572 0.129932 -0.105463 55
48 1 4.1547 7.1615 4.76625 0.358219 -0.396138 -0.599757 0.595857 3.1589 3.1589 3.1589 0.000934206 0.00404707 -0.000540869 0.0454593 0.098762 0.067022 48
45 1 -12.108 19.6761 4.0087 0.0220753 0.890074 -0.249747 0.380667 3.1589 3.1589 3.1589 -0.0031041 0.000598061 -0.002284 0.086453 -0.121302 0.107522 45
59 1 -2.89304 10.8861 2.56141 -0.756981 0.567229 0.206244 0.250387 3.1589 3.1589 3.1589 -0.0012046 0.00324197 -0.00209429 0.0340958 -0.0539829 -0.110297 59
39 1 3.1471 9.43181 15.5416 0.445161 0.0105048 0.571036 -0.689666 3.1589 3.1589 3.1589 -0.00277487 0.00549159 -0.000237315 0.0412582 0.0314822 -0.00787089 39
1 1 -4.3547 -3.48927 -8.43971 -0.645166 -0.483643 -0.564773 0.175735 3.1589 3.1589 3.1589 0.00103438 -0.00439672 0.00206896 -0.0183577 -0.0124188 0.0447937 1
26 1 -18.8532 7.2053 -10.8907 0.532868 -0.0468185 0.305023 0.787922 3.1589 3.1589 3.1589 0.00234339 0.00259157 -0.00208598 -0.00406071 0.0130425 0.172088 26
54 1 -9.46728 8.33444 0.646529 -0.195781 0.466665 -0.213484 0.835654 3.1589 3.1589 3.1589 0.000935476 -0.0014882 5.21431e-05 -0.0847971 -0.0940335 0.00488443 54
38 1 -12.4517 -1.50657 3.01464 0.655813 0.108569 -0.265972 -0.698127 3.1589 3.1589 3.1589 -0.000984793 0.00106827 -0.00438436 0.0421627 0.00472142 0.0607646 38
4 1 8.49983 7.77599 0.597358 0.770633 -0.342336 0.256201 0.472538 3.1589 3.1589 3.1589 -0.000197274 0.00367568 0.00169658 0.0432448 0.037708 -0.0691284 4
17 1 -10.0796 6.22898 2.10182 0.505104 0.442969 -0.270925 0.689382 3.1589 3.1589 3.1589 0.00621258 -0.00661318 -0.00160276 -0.0106198 0.0373639 -0.059532 17
35 1 -4.09482 -6.30353 -7.87466 -0.507749 -0.281856 -0.766388 -0.274587 3.1589 3.1589 3.1589 0.00220085 -0.00813738 0.00423579 0.0195648 -0.104576 0.0135458 35
57 1 -3.92411 11.9812 12.4143 0.685199 -0.528601 -0.345127 0.363277 3.1589 3.1589 3.1589 -0.00326521 0.00319108 0.00610279 0.0218488 0.0460163 -0.0748175 57
47 1 -1.0207 19.7939 12.2951 0.980858 -0.079722 0.0597153 0.167318 3.1589 3.1589 3.1589 -0.00952065 -0.000730252 0.000408494 0.0209229 0.0430953 0.00126548 47
51 1 1.95754 2.83317 9.99035 0.307663 -0.769276 0.474446 -0.297422 3.1589 3.1589 3.1589 -0.00288892 -0.000535817 -0.00441075 0.0250786 -0.00251989 -0.122143 51
40 1 10.7159 14.0311 8.49028 0.378135 -0.543949 -0.178773 0.727443 3.1589 3.1589 3.1589 0.000619768 0.00441932 -0.00126073 0.0156773 0.0284173 0.0777586 40
24 1 -7.6762 0.274829 -0.406047 0.738802 0.610898 -0.282651 0.0329158 3.1589 3.1589 3.1589 0.00195489 -0.00669432 0.0086089 -0.0884123 -0.0766471 0.0198681 24
30 1 -3.50865 14.2478 -1.79339 -0.876785 0.397194 -0.260528 0.0748997 3.1589 3.1589 3.1589 9.31803e-05 9.71786e-05 -0.00447421 0.0386938 0.0857882 0.0444425 30
6 1 -7.70226 5.29905 -17.2057 0.450988 0.204179 -0.336523 -0.801045 3.1589 3.1589 3.1589 0.002011 -0.000750823 0.00269518 -0.0315169 -0.013354 0.0913457 6
50 1 -4.46958 2.66643 7.71354 0.815041 -0.548813 0.147352 -0.113135 3.1589 3.1589 3.1589 0.000496839 -0.00248642 -0.00313771 -0.0390907 0.0195518 -0.0502935 50
43 1 6.34949 0.371631 -4.17174 0.578926 -0.0300884 -0.590448 -0.561525 3.1589 3.1589 3.1589 -0.000479189 0.00463722 0.000183632 0.0393423 -0.0954844 0.0120992 43
18 1 0.517517 0.939397 -5.32498 0.408669 0.160282 -0.894437 -0.0853313 3.1589 3.1589 3.1589 -0.00719587 -0.00251346 0.000972034 0.102192 -0.00479026 -0.0377305 18
9 1 2.29957 2.91649 6.10515 0.347708 -0.590537 -0.403298 -0.606395 3.1589 3.1589 3.1589 0.009304 0.0046924 -0.00865359 0.0741879 -0.0280484 -0.0351934 9
36 1 2.09969 0.274864 -3.25032 -0.406912 0.643657 -0.0760207 -0.643699 3.1589 3.1589 3.1589 -0.000964214 -0.000356377 -0.0107465 0.086284 0.0893123 0.0380098 36
29 1 -6.84423 2.7145 -1.44924 -0.236405 -0.837331 0.43582 0.230329 3.1589 3.1589 3.1589 0.00394575 -0.000358043 -0.00207093 -0.05633 0.0899396 0.150923 29
14 1 -8.41629 17.0854 -12.5665 0.90598 -0.32579 0.0908363 0.254579 3.1589 3.1589 3.1589 0.00210984 -0.00194254 -1.51755e-05 0.00829048 0.0441576 -0.0637559 14
11 1 -7.99536 2.65638 -3.99486 0.48809 0.651115 -0.019035 -0.580908 3.1589 3.1589 3.1589 0.000162633 -0.00466986 0.00135017 -0.0616096 -0.0373102 -0.0117791 11
22 1 -2.12726 5.43567 -2.31028 -0.779343 -0.505033 -0.244028 -0.279313 3.1589 3.1589 3.1589 -0.00595153 -0.00868805 0.000986497 0.0456235 -0.091716 0.0494938 22
64 1 0.0566442 17.0361 8.18542 0.492553 0.263448 -0.774994 0.295586 3.1589 3.1589 3.1589 0.00471887 -0.00077157 0.000784245 -0.0620098 0.141032 -0.0185902 64
46 1 -0.825833 1.16426 -0.911334 -0.817581 -0.303662 0.463423 -0.156814 3.1589 3.1589 3.1589 -0.00286944 -0.000715687 0.00734619 0.0830596 -0.0264954 -0.0406759 46
20 1 -3.98513 4.69075 -0.0193594 0.535157 0.712625 0.254973 0.375182 3.1589 3.1589 3.1589 -0.000947921 -0.00410023 0.000358224 0.0110716 -0.0165261 -0.0125439 20
8 1 14.4706 1.23515 0.172864 0.201435 -0.399841 0.815118 -0.367606 3.1589 3.1589 3.1589 0.00169802 0.00266228 0.00432887 0.000720922 0.0100139 0.0604338 8
63 1 -3.01553 18.0747 7.04583 -0.10756 -0.307111 -0.309546 -0.893474 3.1589 3.1589 3.1589 0.000745152 0.00404655 0.00340962 -0.0718904 0.149734 -0.0317753 63
62 1 -11.14 4.45254 -0.0470511 0.337334 0.293782 -0.434575 0.781692 3.1589 3.1589 3.1589 0.00545675 -0.000457201 0.000398155 -0.0108619 -0.023607 -0.03353 62
21 1 -14.9421 14.7121 -6.48146 -0.248861 0.359516 -0.493465 0.75187 3.1589 3.1589 3.1589 0.00260447 -0.00131749 0.00301941 -0.108732 0.0252283 0.0887331 21
15 1 -10.7775 5.34687 -7.39695 -0.259845 -0.824147 -0.471893 -0.17487 3.1589 3.1589 3.1589 -0.00214183 -0.00865318 -0.00511081 0.0962137 0.00879285 -0.116287 15
7 1 1.18023 0.758449 -8.37328 0.502403 -0.0520229 -0.660022 -0.556107 3.1589 3.1589 3.1589 -0.00563486 0.00410437 -0.0039773 -0.0558293 0.0234981 0.0811102 7
53 1 -0.84713 14.2892 1.78964 0.31885 0.230938 0.669694 0.629692 3.1589 3.1589 3.1589 0.00224275 -0.00277391 -0.00286671 0.0416243 0.0140128 0.0239221 53
28 1 -6.01721 3.84751 5.69475 0.506692 0.0832248 -0.849623 0.120324 3.1589 3.1589 3.1589 0.00174066 -0.00448059 -0.00290966 -0.0268073 -0.0249125 0.0196413 28
58 1 -6.01969 12.5898 1.84917 -0.0805712 -0.889539 -0.171411 0.415749 3.1589 3.1589 3.1589 -0.00471171 0.00312526 0.000294713 -0.0107212 0.0669613 -0.0198746 58
42 1 -7.55165 5.03205 2.89262 -0.493982 0.824914 -0.274532 0.011477 3.1589 3.1589 3.1589 0.000154446 0.00350027 0.0012544 -0.104186 -0.019695 -0.0450591 42
44 1 5.29476 13.4463 5.44283 -0.0190438 0.651918 0.75504 0.0674957 3.1589 3.1589 3.1589 0.00331182 -0.00495658 -0.000503918 -0.179538 0.0326679 0.0128328 44
60 1 3.70732 14.4667 3.63354 -0.325697 -0.616694 -0.71644 0.0179869 3.1589 3.1589 3.1589 0.00207135 -0.00054369 -0.00229428 -0.0645167 -0.147545 -0.00530014 60
3 1 -3.46083 0.113337 4.88844 0.0564338 -0.848472 -0.0521414 0.523633 3.1589 3.1589 3.1589 -0.00104688 0.00116974 0.00548829 0.0372937 -0.12831 0.0593458 3
25 1 -1.99173 -8.58556 -8.83334 0.91601 -0.252138 0.160525 0.26755 3.1589 3.1589 3.1589 -0.00380588 -0.00143434 0.00445894 0.0950722 0.0591121 0.0442303 25
16 1 6.26665 15.4737 -10.8966 -0.406421 0.560944 0.164804 -0.702142 3.1589 3.1589 3.1589 -1.1279e-05 0.00363847 0.003004 0.155548 -0.00994869 0.213347 16
ITEM: TIMESTEP
15000
ITEM: NUMBER OF ATOMS
64
ITEM: BOX BOUNDS pp pp pp
-6.0654130454068937e+00 6.0654130454068937e+00
-6.0654130454068937e+00 6.0654130454068937e+00
-6.0654130454068937e+00 6.0654130454068937e+00
ITEM: ATOMS id type xu yu zu quatw quati quatj quatk c_diameter[1] c_diameter[2] c_diameter[3] vx vy vz angmomx angmomy angmomz mol
42 1 -8.1553 10.8655 -3.22542 0.744295 -0.578212 -0.0867478 -0.322755 3.1589 3.1589 3.1589 0.00379745 0.00757794 0.00583638 -0.0363615 -0.050619 -0.0334418 42
3 1 -14.4077 -0.46212 -2.18617 0.104203 0.903736 0.149473 0.387377 3.1589 3.1589 3.1589 0.00278838 0.00362935 -0.00390777 0.0719389 0.0621619 -0.0863801 3
10 1 -2.8604 8.75612 -14.8749 -0.332814 0.353303 0.4514 0.748765 3.1589 3.1589 3.1589 0.000539463 -0.00292966 -0.00182581 -0.00783328 0.0167351 0.00819941 10
38 1 -18.2877 -5.04644 -1.80492 0.395802 0.776227 -0.482771 -0.0880052 3.1589 3.1589 3.1589 0.00100013 -0.000294092 0.00489035 0.0200203 0.044557 -0.000160369 38
36 1 -0.424315 -3.47364 -3.99078 0.227207 0.0389806 0.376805 -0.897149 3.1589 3.1589 3.1589 0.00729629 0.00179648 -0.00119717 -0.0305481 -0.171827 0.0320261 36
21 1 -16.9567 7.7473 -16.3264 -0.576075 -0.763851 -0.281092 -0.0752079 3.1589 3.1589 3.1589 -0.00454389 -0.00408584 -0.000747976 -0.0908423 -0.0537498 0.103317 21
39 1 2.12528 10.4866 11.3844 0.0463439 -0.517051 -0.746482 0.416263 3.1589 3.1589 3.1589 0.00326282 0.000722984 0.00111346 -0.0390813 0.0634456 -0.0171181 39
15 1 -11.7958 -0.629516 -16.2399 -0.114814 -0.762691 0.424238 -0.474491 3.1589 3.1589 3.1589 0.000696943 -0.00543481 0.00563812 0.0263802 0.0046309 0.0266201 15
2 1 3.38263 -3.93675 -12.7088 0.64113 0.695144 -0.107861 0.306746 3.1589 3.1589 3.1589 0.00136086 -0.0012096 0.0021662 -0.0868397 0.0549358 -0.00405146 2
59 1 -5.5204 10.3222 -3.23139 -0.270232 -0.604124 0.206585 0.720646 3.1589 3.1589 3.1589 -0.00247666 -0.00120942 -0.00252624 0.0136113 0.0385595 0.0115491 59
7 1 2.24434 -3.89957 -16.0498 0.394922 -0.544339 -0.737537 -0.0614142 3.1589 3.1589 3.1589 -0.000791245 0.00395315 0.00351299 0.0617642 -0.0647356 0.0271666 7
46 1 2.5924 -0.973097 -5.54937 0.649397 -0.500167 0.445858 0.359621 3.1589 3.1589 3.1589 0.00818724 -0.000423415 0.00557871 -0.0041838 0.126708 -0.0422392 46
28 1 -5.60285 10.7326 -0.475854 0.377317 0.852229 -0.267049 -0.244997 3.1589 3.1589 3.1589 -0.00804595 0.00376615 -0.0078545 0.154653 -0.0314759 0.106265 28
23 1 -1.45484 -5.65073 -5.36114 0.313604 0.906401 0.176967 -0.220843 3.1589 3.1589 3.1589 0.00125277 0.000408243 -0.00283613 0.0629516 -0.00604934 -0.0158239 23
25 1 -1.85401 -5.42121 -13.0356 -0.2428 0.735828 -0.431108 -0.462334 3.1589 3.1589 3.1589 1.78926e-05 -0.00804057 0.00313386 -0.00946469 0.00277522 0.0146919 25
54 1 -8.56812 7.44089 -6.0429 0.319165 -0.320354 -0.467879 0.759339 3.1589 3.1589 3.1589 -0.00122099 -0.000622057 -0.00255231 0.120951 0.0560264 -0.0878657 54