LAMMPS Description

192  atoms
128  bonds
64  angles
0  dihedrals
0  impropers

2  atom types
1  bond types
1  angle types
0  dihedral types
0  improper types

0.0   12.410 xlo xhi
0.0   12.410 ylo yhi
0.0   12.410 zlo zhi

Atoms

1 1 1 -1.1128 -4.617 -6.023 1.205
2 1 2 0.5564 -4.798 -6.515 2.006
3 1 2 0.5564 -3.817 -6.417 0.857
4 2 1 -1.1128 -3.729 0.771 5.562
5 2 2 0.5564 -3.696 0.317 6.404
6 2 2 0.5564 -3.751 1.700 5.792
7 3 1 -1.1128 0.280 1.298 -3.477
8 3 2 0.5564 -0.103 0.733 -4.148
9 3 2 0.5564 0.944 0.753 -3.055
10 4 1 -1.1128 -4.120 -3.235 5.370
11 4 2 0.5564 -3.586 -2.456 5.525
12 4 2 0.5564 -4.096 -3.357 4.421
13 5 1 -1.1128 -3.728 -3.610 2.714
14 5 2 0.5564 -3.869 -4.400 2.191
15 5 2 0.5564 -3.659 -2.905 2.070
16 6 1 -1.1128 3.645 -3.184 4.553
17 6 2 0.5564 4.007 -2.299 4.516
18 6 2 0.5564 3.036 -3.225 3.815
19 7 1 -1.1128 -0.626 -0.763 -5.300
20 7 2 0.5564 -1.568 -0.679 -5.150
21 7 2 0.5564 -0.357 -1.492 -4.742
22 8 1 -1.1128 -1.745 0.501 3.599
23 8 2 0.5564 -1.446 -0.341 3.942
24 8 2 0.5564 -2.573 0.664 4.052
25 9 1 -1.1128 6.139 -1.511 -5.910
26 9 2 0.5564 5.458 -1.971 -6.401
27 9 2 0.5564 6.959 -1.794 -6.314
28 10 1 -1.1128 0.197 -4.471 -1.845
29 10 2 0.5564 0.669 -5.293 -1.979
30 10 2 0.5564 0.688 -4.022 -1.157
31 11 1 -1.1128 3.918 -0.488 -2.850
32 11 2 0.5564 4.112 -1.397 -3.078
33 11 2 0.5564 4.328 0.027 -3.545
34 12 1 -1.1128 -1.680 0.122 -0.441
35 12 2 0.5564 -1.198 0.912 -0.197
36 12 2 0.5564 -1.018 -0.454 -0.825
37 13 1 -1.1128 3.347 1.536 -1.181
38 13 2 0.5564 2.913 1.331 -0.353
39 13 2 0.5564 3.475 0.686 -1.602
40 14 1 -1.1128 -6.133 -5.885 -1.193
41 14 2 0.5564 -5.688 -6.150 -0.388
42 14 2 0.5564 -5.459 -5.945 -1.870
43 15 1 -1.1128 0.600 -2.856 -3.962
44 15 2 0.5564 0.531 -3.555 -3.312
45 15 2 0.5564 1.294 -3.146 -4.554
46 16 1 -1.1128 -2.635 4.037 -2.308
47 16 2 0.5564 -1.696 4.174 -2.436
48 16 2 0.5564 -2.763 3.100 -2.455
49 17 1 -1.1128 -3.394 1.071 -2.381
50 17 2 0.5564 -4.228 0.686 -2.113
51 17 2 0.5564 -2.745 0.662 -1.809
52 18 1 -1.1128 -5.970 -3.085 0.410
53 18 2 0.5564 -6.750 -2.556 0.576
54 18 2 0.5564 -6.306 -3.887 0.008
55 19 1 -1.1128 1.673 -3.438 0.204
56 19 2 0.5564 2.282 -4.156 0.378
57 19 2 0.5564 1.345 -3.187 1.067
58 20 1 -1.1128 5.771 1.253 5.208
59 20 2 0.5564 5.526 1.357 6.128
60 20 2 0.5564 6.605 0.785 5.233
61 21 1 -1.1128 1.917 5.815 -1.786
62 21 2 0.5564 2.751 5.482 -2.115
63 21 2 0.5564 1.910 5.573 -0.860
64 22 1 -1.1128 -0.725 4.116 -5.623
65 22 2 0.5564 -0.549 4.201 -4.686
66 22 2 0.5564 -0.284 4.868 -6.019
67 23 1 -1.1128 3.562 1.228 1.894
68 23 2 0.5564 4.257 1.838 1.648
69 23 2 0.5564 2.810 1.787 2.091
70 24 1 -1.1128 -1.237 -4.808 3.555
71 24 2 0.5564 -2.023 -4.344 3.268
72 24 2 0.5564 -1.256 -5.634 3.071
73 25 1 -1.1128 4.291 -1.341 0.949
74 25 2 0.5564 3.645 -1.787 0.401
75 25 2 0.5564 3.942 -0.456 1.059
76 26 1 -1.1128 -6.077 0.800 -1.244
77 26 2 0.5564 -6.943 1.186 -1.377
78 26 2 0.5564 -6.209 -0.138 -1.380
79 27 1 -1.1128 1.271 -3.016 2.927
80 27 2 0.5564 1.168 -2.124 3.260
81 27 2 0.5564 0.447 -3.450 3.147
82 28 1 -1.1128 -1.386 -2.026 4.748
83 28 2 0.5564 -0.983 -1.781 5.581
84 28 2 0.5564 -1.879 -2.822 4.945
85 29 1 -1.1128 1.591 2.807 2.728
86 29 2 0.5564 2.094 3.546 3.070
87 29 2 0.5564 1.005 2.563 3.445
88 30 1 -1.1128 5.264 -4.690 3.011
89 30 2 0.5564 4.743 -4.066 3.516
90 30 2 0.5564 5.977 -4.167 2.645
91 31 1 -1.1128 6.012 3.681 4.135
92 31 2 0.5564 5.706 2.861 4.523
93 31 2 0.5564 5.679 4.362 4.719
94 32 1 -1.1128 -4.500 -1.664 -1.614
95 32 2 0.5564 -4.660 -2.184 -0.826
96 32 2 0.5564 -3.733 -2.071 -2.018
97 33 1 -1.1128 2.308 -4.240 -5.719
98 33 2 0.5564 2.752 -3.615 -6.292
99 33 2 0.5564 2.979 -4.510 -5.092
100 34 1 -1.1128 -3.906 4.537 3.141
101 34 2 0.5564 -4.790 4.219 3.326
102 34 2 0.5564 -3.346 4.061 3.755
103 35 1 -1.1128 4.793 1.299 -4.684
104 35 2 0.5564 3.879 1.437 -4.931
105 35 2 0.5564 5.104 2.166 -4.422
106 36 1 -1.1128 -2.462 -3.132 -3.094
107 36 2 0.5564 -2.974 -3.939 -3.041
108 36 2 0.5564 -1.556 -3.415 -2.971
109 37 1 -1.1128 -0.019 2.909 0.174
110 37 2 0.5564 0.612 3.291 0.785
111 37 2 0.5564 -0.869 3.038 0.595
112 38 1 -1.1128 -0.349 -5.588 6.148
113 38 2 0.5564 0.574 -5.364 6.269
114 38 2 0.5564 -0.586 -5.188 5.312
115 39 1 -1.1128 5.151 -1.051 3.745
116 39 2 0.5564 5.145 -0.800 2.821
117 39 2 0.5564 5.210 -0.222 4.219
118 40 1 -1.1128 6.199 -2.757 -3.552
119 40 2 0.5564 6.297 -2.053 -4.193
120 40 2 0.5564 6.727 -2.478 -2.805
121 41 1 -1.1128 2.693 5.721 5.665
122 41 2 0.5564 2.491 6.608 5.962
123 41 2 0.5564 2.321 5.672 4.784
124 42 1 -1.1128 -3.197 -0.851 1.639
125 42 2 0.5564 -2.755 -0.638 0.817
126 42 2 0.5564 -2.622 -0.500 2.319
127 43 1 -1.1128 -2.795 -5.247 -5.152
128 43 2 0.5564 -3.039 -4.601 -5.815
129 43 2 0.5564 -1.900 -5.498 -5.379
130 44 1 -1.1128 5.671 3.001 1.622
131 44 2 0.5564 6.470 2.479 1.547
132 44 2 0.5564 5.757 3.451 2.462
133 45 1 -1.1128 -0.026 4.093 -2.806
134 45 2 0.5564 0.163 3.159 -2.894
135 45 2 0.5564 0.435 4.358 -2.010
136 46 1 -1.1128 -1.746 -4.705 0.032
137 46 2 0.5564 -1.146 -4.619 -0.709
138 46 2 0.5564 -2.579 -4.363 -0.293
139 47 1 -1.1128 -2.702 3.715 0.617
140 47 2 0.5564 -2.919 3.802 -0.311
141 47 2 0.5564 -3.282 3.024 0.936
142 48 1 -1.1128 1.893 5.909 2.863
143 48 2 0.5564 2.442 6.650 2.604
144 48 2 0.5564 1.078 6.033 2.377
145 49 1 -1.1128 -5.938 3.348 -3.765
146 49 2 0.5564 -5.378 4.030 -4.136
147 49 2 0.5564 -5.397 2.929 -3.096
148 50 1 -1.1128 4.373 5.054 -2.422
149 50 2 0.5564 4.886 5.563 -1.795
150 50 2 0.5564 5.008 4.467 -2.832
151 51 1 -1.1128 1.938 1.532 -5.446
152 51 2 0.5564 1.383 1.836 -6.164
153 51 2 0.5564 1.397 1.636 -4.663
154 52 1 -1.1128 -3.263 -0.751 -4.665
155 52 2 0.5564 -3.308 -1.627 -4.282
156 52 2 0.5564 -3.367 -0.158 -3.921
157 53 1 -1.1128 -3.066 3.389 5.557
158 53 2 0.5564 -2.306 3.653 6.074
159 53 2 0.5564 -3.789 3.908 5.909
160 54 1 -1.1128 5.399 6.001 5.352
161 54 2 0.5564 4.452 6.008 5.497
162 54 2 0.5564 5.594 6.869 4.999
163 55 1 -1.1128 3.480 4.509 0.454
164 55 2 0.5564 3.607 4.118 -0.410
165 55 2 0.5564 4.120 4.068 1.013
166 56 1 -1.1128 3.628 -5.256 1.063
167 56 2 0.5564 3.424 -6.162 0.832
168 56 2 0.5564 4.358 -5.323 1.678
169 57 1 -1.1128 4.584 -4.788 -4.202
170 57 2 0.5564 5.296 -4.204 -3.941
171 57 2 0.5564 4.333 -5.236 -3.395
172 58 1 -1.1128 -4.508 1.635 1.029
173 58 2 0.5564 -4.194 0.857 1.491
174 58 2 0.5564 -5.020 1.289 0.299
175 59 1 -1.1128 -3.910 -6.031 -2.689
176 59 2 0.5564 -3.703 -5.755 -3.582
177 59 2 0.5564 -3.413 -6.840 -2.567
178 60 1 -1.1128 0.172 2.120 4.988
179 60 2 0.5564 -0.217 2.779 5.564
180 60 2 0.5564 -0.577 1.665 4.604
181 61 1 -1.1128 1.912 -0.362 3.683
182 61 2 0.5564 2.747 -0.117 3.284
183 61 2 0.5564 1.823 0.225 4.433
184 62 1 -1.1128 -4.725 5.119 -5.627
185 62 2 0.5564 -4.071 5.801 -5.780
186 62 2 0.5564 -5.534 5.477 -5.992
187 63 1 -1.1128 -1.088 5.600 1.792
188 63 2 0.5564 -1.669 4.896 1.505
189 63 2 0.5564 -1.283 6.328 1.203
190 64 1 -1.1128 0.733 -1.070 -1.307
191 64 2 0.5564 0.835 -1.565 -2.120
192 64 2 0.5564 1.099 -1.641 -0.631

Bonds

1 1 1 2
2 1 1 3
3 1 4 5
4 1 4 6
5 1 7 8
6 1 7 9
7 1 10 11
8 1 10 12
9 1 13 14
10 1 13 15
11 1 16 17
12 1 16 18
13 1 19 20
14 1 19 21
15 1 22 23
16 1 22 24
17 1 25 26
18 1 25 27
19 1 28 29
20 1 28 30
21 1 31 32
22 1 31 33
23 1 34 35
24 1 34 36
25 1 37 38
26 1 37 39
27 1 40 41
28 1 40 42
29 1 43 44
30 1 43 45
31 1 46 47
32 1 46 48
33 1 49 50
34 1 49 51
35 1 52 53
36 1 52 54
37 1 55 56
38 1 55 57
39 1 58 59
40 1 58 60
41 1 61 62
42 1 61 63
43 1 64 65
44 1 64 66
45 1 67 68
46 1 67 69
47 1 70 71
48 1 70 72
49 1 73 74
50 1 73 75
51 1 76 77
52 1 76 78
53 1 79 80
54 1 79 81
55 1 82 83
56 1 82 84
57 1 85 86
58 1 85 87
59 1 88 89
60 1 88 90
61 1 91 92
62 1 91 93
63 1 94 95
64 1 94 96
65 1 97 98
66 1 97 99
67 1 100 101
68 1 100 102
69 1 103 104
70 1 103 105
71 1 106 107
72 1 106 108
73 1 109 110
74 1 109 111
75 1 112 113
76 1 112 114
77 1 115 116
78 1 115 117
79 1 118 119
80 1 118 120
81 1 121 122
82 1 121 123
83 1 124 125
84 1 124 126
85 1 127 128
86 1 127 129
87 1 130 131
88 1 130 132
89 1 133 134
90 1 133 135
91 1 136 137
92 1 136 138
93 1 139 140
94 1 139 141
95 1 142 143
96 1 142 144
97 1 145 146
98 1 145 147
99 1 148 149
100 1 148 150
101 1 151 152
102 1 151 153
103 1 154 155
104 1 154 156
105 1 157 158
106 1 157 159
107 1 160 161
108 1 160 162
109 1 163 164
110 1 163 165
111 1 166 167
112 1 166 168
113 1 169 170
114 1 169 171
115 1 172 173
116 1 172 174
117 1 175 176
118 1 175 177
119 1 178 179
120 1 178 180
121 1 181 182
122 1 181 183
123 1 184 185
124 1 184 186
125 1 187 188
126 1 187 189
127 1 190 191
128 1 190 192

Angles

1 1 3 1 2
2 1 6 4 5
3 1 9 7 8
4 1 12 10 11
5 1 15 13 14
6 1 18 16 17
7 1 21 19 20
8 1 24 22 23
9 1 27 25 26
10 1 30 28 29
11 1 33 31 32
12 1 36 34 35
13 1 39 37 38
14 1 42 40 41
15 1 45 43 44
16 1 48 46 47
17 1 51 49 50
18 1 54 52 53
19 1 57 55 56
20 1 60 58 59
21 1 63 61 62
22 1 66 64 65
23 1 69 67 68
24 1 72 70 71
25 1 75 73 74
26 1 78 76 77
27 1 81 79 80
28 1 84 82 83
29 1 87 85 86
30 1 90 88 89
31 1 93 91 92
32 1 96 94 95
33 1 99 97 98
34 1 102 100 101
35 1 105 103 104
36 1 108 106 107
37 1 111 109 110
38 1 114 112 113
39 1 117 115 116
40 1 120 118 119
41 1 123 121 122
42 1 126 124 125
43 1 129 127 128
44 1 132 130 131
45 1 135 133 134
46 1 138 136 137
47 1 141 139 140
48 1 144 142 143
49 1 147 145 146
50 1 150 148 149
51 1 153 151 152
52 1 156 154 155
53 1 159 157 158
54 1 162 160 161
55 1 165 163 164
56 1 168 166 167
57 1 171 169 170
58 1 174 172 173
59 1 177 175 176
60 1 180 178 179
61 1 183 181 182
62 1 186 184 185
63 1 189 187 188
64 1 192 190 191

