ITEM: TIMESTEP
55000
ITEM: NUMBER OF ATOMS
64
ITEM: BOX BOUNDS pp pp pp
-6.20518 6.20518
-6.20518 6.20518
-6.20518 6.20518
ITEM: ATOMS id type xu yu zu quatw quati quatj quatk c_diameter[1] c_diameter[2] c_diameter[3] vx vy vz angmomx angmomy angmomz mol
1 1 -4.61685 -6.02324 1.20543 -0.173385 0.382075 0.303428 0.855505 3.1589 3.1589 3.1589 0.00297125 -0.000294175 0.000201131 0.0774172 -0.0474441 -0.0953211 1 
2 1 -3.7291 0.771132 5.56206 -0.605157 -0.389701 0.579843 0.381707 3.1589 3.1589 3.1589 0.00244517 -0.00252843 -0.00680573 0.0653312 -0.0287774 -0.113031 2 
3 1 0.279935 1.29836 -3.4773 0.0695897 0.38664 0.146525 -0.907853 3.1589 3.1589 3.1589 0.00153437 0.000254918 0.00363477 -0.00205115 -0.00243362 -0.01893 3 
4 1 -4.11963 -3.23524 5.36996 0.67139 -0.466397 -0.574202 0.044728 3.1589 3.1589 3.1589 0.00118846 -0.00199896 0.00413189 0.0211883 -0.0614444 -0.00636228 4 
5 1 -3.72796 -3.61044 2.71363 0.429812 -0.495797 0.528637 -0.538507 3.1589 3.1589 3.1589 -0.000751011 -0.000233264 -0.00082846 0.014801 0.00216451 -0.0144612 5 
6 1 3.64494 -3.18404 4.5527 -0.859115 0.287318 0.349401 -0.239353 3.1589 3.1589 3.1589 0.00274044 -0.0013079 0.000308877 -0.062061 -0.0253775 -0.0190133 6 
7 1 -0.626045 -0.762603 -5.30044 0.315456 -0.0264964 0.353445 0.880263 3.1589 3.1589 3.1589 -0.00600569 -0.00569086 -0.00569796 0.0255181 -0.0883073 0.00858564 7 
8 1 -1.74521 0.501265 3.59906 -0.32928 -0.873912 0.318872 0.161784 3.1589 3.1589 3.1589 0.00506851 0.00200101 -0.00349528 0.07636 0.0460235 -0.0317358 8 
9 1 6.13857 -1.5108 -5.9104 -0.065107 -0.00139744 -0.422361 0.904085 3.1589 3.1589 3.1589 0.00153871 -0.00138666 0.0028056 -0.0292362 0.0307017 -0.0528269 9 
10 1 0.197072 -4.4707 -1.84534 -0.583671 -0.391325 0.0115695 0.711378 3.1589 3.1589 3.1589 0.00142669 -0.00322758 0.00629589 0.0224521 -0.0740047 0.0617865 10 
11 1 3.9183 -0.488168 -2.84994 -0.513166 0.406427 -0.261484 0.709298 3.1589 3.1589 3.1589 0.00407778 0.000678299 0.00144345 0.0171057 0.136463 -0.0301486 11 
12 1 -1.67987 0.121865 -0.441168 0.201225 -0.632674 -0.742205 -0.0914559 3.1589 3.1589 3.1589 -0.000238337 0.00372725 -0.00530312 -0.032019 0.100589 0.0886495 12 
13 1 3.34694 1.53613 -1.18124 0.208397 0.520283 0.0793566 0.824366 3.1589 3.1589 3.1589 -0.000675311 -0.000236729 0.00438566 -0.0684306 0.0957162 0.00207258 13 
14 1 -6.13263 -5.88537 -1.19257 0.43104 -0.488534 -0.419159 -0.632333 3.1589 3.1589 3.1589 -0.00321281 0.00843364 0.00136672 0.105863 -0.0779696 -0.00868852 14 
15 1 0.600135 -2.85578 -3.96204 0.234983 -0.438872 -0.150034 -0.854204 3.1589 3.1589 3.1589 0.00176271 -0.00147076 -0.00282414 0.0250954 0.150155 -0.0777927 15 
16 1 -2.63463 4.0374 -2.30767 -0.111593 0.916576 0.381905 -0.0398019 3.1589 3.1589 3.1589 0.00298343 0.000370402 -0.00279217 -0.0861469 -0.0446739 -0.0982032 16 
17 1 -3.39406 1.0714 -2.38085 0.0476576 -0.0892923 0.397727 0.911904 3.1589 3.1589 3.1589 0.00309058 0.00300973 -0.00192204 0.0959205 -0.0222647 -0.0727508 17 
18 1 -5.97043 -3.08524 0.409697 -0.587199 -0.091479 0.197934 -0.779519 3.1589 3.1589 3.1589 -0.00054936 -0.00395155 -0.00408394 -0.0862878 0.0998642 0.0211463 18 
19 1 1.67297 -3.43845 0.203732 -0.530926 -0.726384 0.138014 0.414048 3.1589 3.1589 3.1589 -0.00451261 0.00388613 0.00056765 0.060321 0.0326945 0.0766783 19 
20 1 5.77069 1.25326 5.20786 -0.0440025 0.376398 0.585297 0.716809 3.1589 3.1589 3.1589 -0.00150888 -0.00144477 -0.00304911 -0.135802 0.0664254 -0.114626 20 
21 1 1.91674 5.81526 -1.78567 0.45647 0.754766 0.213929 -0.419759 3.1589 3.1589 3.1589 -0.00478571 -0.00273192 0.00142411 0.11849 -0.0874703 -0.0203641 21 
22 1 -0.724932 4.11603 -5.62344 -0.641302 0.0321556 0.66751 0.376997 3.1589 3.1589 3.1589 -0.00546357 -0.000974323 -0.00182363 -0.0639768 0.0843799 -0.041433 22 
23 1 3.56174 1.22753 1.89366 0.988551 -0.0242001 0.147481 0.020767 3.1589 3.1589 3.1589 -0.00419144 -0.00219858 0.000818525 -0.0158109 0.0615326 -0.154678 23 
24 1 -1.23663 -4.80844 3.55486 0.481464 -0.121877 -0.338028 0.799422 3.1589 3.1589 3.1589 0.00172807 -0.00442802 0.000369864 0.0166102 -0.105435 0.0188114 24 
25 1 4.29092 -1.34087 0.948565 0.299283 -0.558906 0.772941 -0.0247942 3.1589 3.1589 3.1589 0.00589896 -0.00175937 0.00198111 -0.124322 0.108808 -0.023941 25 
26 1 -6.07743 0.799765 -1.24387 0.504239 -0.0576939 -0.100304 0.855777 3.1589 3.1589 3.1589 -0.00221258 0.00254933 0.00803589 0.0230713 -0.0396458 0.0735346 26 
27 1 1.27077 -3.01587 2.92736 0.828521 0.227779 0.0934713 0.502924 3.1589 3.1589 3.1589 0.00621865 0.000259638 0.0055416 -0.0324615 0.0255071 -0.0822954 27 
28 1 -1.38553 -2.0262 4.74783 -0.473515 -0.756149 -0.201579 -0.404213 3.1589 3.1589 3.1589 -0.00588504 0.00137453 -0.000213984 0.00729256 0.0112278 0.00811878 28 
29 1 1.59094 2.80676 2.72803 -0.789172 -0.486638 -0.297465 -0.22783 3.1589 3.1589 3.1589 -0.000457959 0.00289512 0.00409718 0.0511788 0.130339 0.0274307 29 
30 1 5.26362 -4.6902 3.01054 0.298022 -0.0609198 -0.949061 -0.0821888 3.1589 3.1589 3.1589 0.00267553 0.00310486 -0.000169692 0.0286052 0.0151054 0.00910756 30 
31 1 6.01223 3.68073 4.13529 -0.298558 -0.648007 0.592981 0.373261 3.1589 3.1589 3.1589 -0.00329506 -0.00675898 0.00268135 -0.00214053 0.0352374 0.0147323 31 
32 1 -4.49967 -1.66408 -1.61367 -0.172969 0.404798 0.273058 0.855371 3.1589 3.1589 3.1589 -0.00414238 0.00400445 -0.0087107 0.0339094 0.0856672 0.0341742 32 
33 1 2.30767 -4.2402 -5.71864 0.368929 0.537451 0.7178 -0.244543 3.1589 3.1589 3.1589 -0.00118822 -0.00370941 0.00257583 0.012027 -0.0567541 0.0952646 33 
34 1 -3.90564 4.53683 3.14126 -0.105002 0.111006 -0.387592 -0.909079 3.1589 3.1589 3.1589 -0.000604037 -0.00244449 -0.00280931 0.149562 0.0571071 -0.000515216 34 
35 1 4.7931 1.29924 -4.68404 -0.1628 0.262438 -0.949702 -0.0518387 3.1589 3.1589 3.1589 -0.00455049 -0.00170759 0.00151632 0.126533 0.1337 -0.0552038 35 
36 1 -2.46193 -3.13204 -3.09374 0.173814 0.0358197 -0.0700221 -0.981633 3.1589 3.1589 3.1589 -0.00555017 -0.00358306 0.00109581 -0.060607 -0.00697124 -0.180279 36 
37 1 -0.0189324 2.9092 0.174132 -0.847287 -0.520679 0.00962574 -0.104432 3.1589 3.1589 3.1589 -0.00861046 -0.000981201 0.00687732 -0.0194325 0.00716695 -0.0722572 37 
38 1 -0.349097 -5.5878 6.14833 -0.832842 0.435068 0.269535 0.21081 3.1589 3.1589 3.1589 -0.00448263 -0.00423172 -0.00337175 0.0360022 -0.124797 0.0499519 38 
39 1 5.15063 -1.0511 3.7448 0.681241 -0.119253 0.705015 -0.156981 3.1589 3.1589 3.1589 -0.00102878 -0.00335979 0.00282139 0.10495 0.00448395 -0.0382639 39 
40 1 6.19884 -2.75737 -3.5522 0.540261 0.257248 0.792543 -0.117548 3.1589 3.1589 3.1589 -0.00101708 0.000378121 -0.00195511 -0.122199 -0.0240212 -0.0641559 40 
41 1 2.69319 5.7206 5.66473 0.743434 -0.0577256 -0.552264 0.372798 3.1589 3.1589 3.1589 0.00135322 0.000384556 0.00606916 0.0401126 -0.0958372 -0.0415313 41 
42 1 -3.19713 -0.850868 1.63916 -0.598012 -0.313858 -0.618872 0.401089 3.1589 3.1589 3.1589 0.000788364 0.00610667 -0.000927739 0.072746 -0.0285889 -0.0385397 42 
43 1 -2.79506 -5.2466 -5.15164 0.0198992 -0.351253 -0.817354 0.456243 3.1589 3.1589 3.1589 0.00302346 -0.000493721 0.00130749 -0.118322 -1.31559e-05 0.0298296 43 
44 1 5.67127 3.0006 1.62183 -0.683123 -0.518634 -0.0540272 0.511315 3.1589 3.1589 3.1589 0.000218805 -0.0022327 -0.000793691 -0.0751551 0.0516124 -0.133182 44 
45 1 -0.0259647 4.09326 -2.80617 0.444433 0.461134 -0.128874 -0.757117 3.1589 3.1589 3.1589 0.00349249 -0.000550521 0.00216899 0.0304671 0.0261256 -0.0597735 45 
46 1 -1.74623 -4.7045 0.0318324 0.809653 -0.563707 0.16313 0.00917515 3.1589 3.1589 3.1589 0.00118464 -0.00176402 -0.00368445 0.0771524 -0.0271341 -0.0315567 46 
47 1 -2.70193 3.7152 0.616765 -0.487319 0.61845 -0.0674916 -0.612768 3.1589 3.1589 3.1589 -0.0010883 -0.00842868 -0.000668821 0.0625407 -0.0146489 -0.0222648 47 
48 1 1.89338 5.90936 2.8629 0.921301 -0.318803 -0.141128 0.172195 3.1589 3.1589 3.1589 -0.0039577 0.00446565 -0.00327322 0.0705698 0.0124366 -0.0803992 48 
49 1 -5.93828 3.34786 -3.76537 -0.373025 -0.605876 -0.687957 0.143111 3.1589 3.1589 3.1589 0.00312879 -0.00371147 -0.00422557 -0.0552692 0.119509 -0.0651255 49 
50 1 4.37303 5.05393 -2.42224 0.19251 -0.65015 -0.65539 -0.33273 3.1589 3.1589 3.1589 -0.000710902 0.00141334 0.00407166 -0.0615056 -0.103063 -0.0285629 50 
51 1 1.93837 1.53226 -5.4464 -0.603897 0.361112 -0.55608 -0.44236 3.1589 3.1589 3.1589 0.00134633 0.00643373 -0.00203914 0.0603661 -0.0349711 -0.0100101 51 
52 1 -3.26294 -0.751168 -4.6648 0.40749 0.594499 -0.461752 -0.517019 3.1589 3.1589 3.1589 0.00546165 -0.00335593 -0.00722733 -0.0177768 0.00351808 0.103756 52 
53 1 -3.06628 3.38896 5.55663 -0.909579 -0.403106 0.0844559 0.0551292 3.1589 3.1589 3.1589 0.00206327 -0.00168296 0.00894241 0.0529263 0.118277 -0.00712508 53 
54 1 5.39854 6.0009 5.35243 -0.127588 -0.326514 0.925799 -0.141443 3.1589 3.1589 3.1589 -0.00153101 -0.00158123 0.00649623 -0.0536294 0.0180264 0.0216365 54 
55 1 3.47992 4.50866 0.454365 0.206394 0.536667 0.320592 -0.752735 3.1589 3.1589 3.1589 0.00136161 -0.00152041 -0.0012804 -0.0331808 -0.0078036 0.0568187 55 
56 1 3.62753 -5.25564 1.06296 0.27994 0.336273 -0.0779257 -0.895813 3.1589 3.1589 3.1589 0.00122849 0.00611623 0.00180186 -0.0263153 -0.0382123 -0.0407505 56 
57 1 4.58424 -4.78807 -4.20214 -0.624004 -0.654815 -0.410488 -0.115483 3.1589 3.1589 3.1589 0.000651624 0.00877619 -9.19481e-05 0.0191212 -0.132737 -0.0828099 57 
58 1 -4.50753 1.6348 1.02946 0.0628718 -0.87689 0.129828 -0.458538 3.1589 3.1589 3.1589 0.000433024 0.00653894 -0.00229765 0.077478 -0.00649691 -0.0166778 58 
59 1 -3.90993 -6.0309 -2.68894 -0.0509801 0.633713 0.519626 -0.570787 3.1589 3.1589 3.1589 -0.000195885 -0.00375334 0.00185907 0.151793 -0.159887 0.019485 59 
60 1 0.17179 2.1202 4.98836 0.736126 0.277712 -0.211995 0.579701 3.1589 3.1589 3.1589 0.00225608 -0.00530563 0.00154677 0.135369 -0.0420709 -0.0326244 60 
61 1 1.91187 -0.362103 3.68283 0.851222 0.284043 0.361215 -0.253502 3.1589 3.1589 3.1589 0.000524906 0.00383646 -0.000499672 0.031283 -0.0608774 -0.0883833 61 
62 1 -4.72493 5.11923 -5.62735 0.967039 -0.21958 -0.092838 0.0894445 3.1589 3.1589 3.1589 -0.00355427 -0.00448718 0.00212017 -0.0162746 -0.00617715 0.149689 62 
63 1 -1.08773 5.5998 1.7924 0.182508 -0.582358 0.690643 -0.388025 3.1589 3.1589 3.1589 0.00213552 -0.00651622 -0.00145014 0.026698 0.0131935 0.0618944 63 
64 1 0.732635 -1.0704 -1.3068 0.117247 0.631645 0.17836 -0.745295 3.1589 3.1589 3.1589 0.00172049 -0.00180014 -0.00100939 0.034265 -0.0211294 0.0705496 64 
