LAMMPS (2 Jun 2022)


# ----------------- Init Section -----------------

include "02_water_aa.in.init"
# Input variables.
variable run string  02_water_aa
variable temp  equal 298.15
variable ts    equal 2      # timestep
variable p     equal 1000    # correlation length
variable s     equal 5       # sample interval
variable equi  equal 50000    # Equilibration steps
  echo  log
  log   ${run}.log
  log   02_water_aa.log
